<UPF version="2.0.1">
  <PP_INFO>
    Generated in analytical, separable form
    Author: Goedecker/Hartwigsen/Hutter/Teter
    Generation date: Phys.Rev.B58, 3641 (1998); B54, 1703 (1996)
    Pseudopotential type: NC
    Element: Zn
    Functional: BLYP

    Suggested minimum cutoff for wavefunctions:   0. Ry
    Suggested minimum cutoff for charge density:   0. Ry
    The Pseudo was generated with a Non-Relativistic Calculation
    Local Potential: unknown format, L component and cutoff radius: -3   0.0000

    Valence configuration: 
    nl pn  l   occ       Rcut    Rcut US       E pseu

    Generation configuration: not available.
    Converted from CPMD format using cpmd2upf v.5.0.1 - PG 10Jul2012
    Contains atomic orbitals generated by ld1.x - use with care
  </PP_INFO>
  <!--                               -->
  <!-- END OF HUMAN READABLE SECTION -->
  <!--                               -->
  <PP_HEADER generated="Generated in analytical, separable form"
             author="Goedecker/Hartwigsen/Hutter/Teter"
             date="Phys.Rev.B58, 3641 (1998); B54, 1703 (1996)"
             comment="Contains atomic orbitals generated by ld1.x - use with care"
             element="Zn"
             pseudo_type="NC"
             relativistic="no"
             is_ultrasoft="F"
             is_paw="F"
             is_coulomb="F"
             has_so="F"
             has_wfc="F"
             has_gipaw="F"
             paw_as_gipaw="F"
             core_correction="F"
             functional="BLYP"
             z_valence="1.200000000000000E+001"
             total_psenergy="0.000000000000000E+000"
             wfc_cutoff="0.000000000000000E+000"
             rho_cutoff="0.000000000000000E+000"
             l_max="2"
             l_max_rho="0"
             l_local="-3"
             mesh_size="1201"
             number_of_wfc=" 3"
             number_of_proj="6"/>
  <PP_MESH dx="1.250000000000000E-002" mesh="1201" xmin="-7.000000000000000E+000" rmax="9.936526623472427E+001"
zmesh="3.000000000000000E+001">
    <PP_R type="real" size="1201" columns="4">
 3.039606551848388E-005  3.077840095563407E-005  3.116554558055274E-005  3.155755988537513E-005 
 3.195450512313399E-005  3.235644331733029E-005  3.276343727162462E-005  3.317555057965038E-005 
 3.359284763495035E-005  3.401539364103849E-005  3.444325462158790E-005  3.487649743074728E-005 
 3.531518976358700E-005  3.575940016667656E-005  3.620919804879526E-005  3.666465369177728E-005 
 3.712583826149344E-005  3.759282381897108E-005  3.806568333165359E-005  3.854449068480192E-005 
 3.902932069303915E-005  3.952024911204042E-005  4.001735265037003E-005  4.052070898146715E-005 
 4.103039675578270E-005  4.154649561306832E-005  4.206908619482049E-005  4.259825015688081E-005 
 4.313407018219493E-005  4.367662999373200E-005  4.422601436756638E-005  4.478230914612423E-005 
 4.534560125159646E-005  4.591597869952057E-005  4.649353061253329E-005  4.707834723429606E-005 
 4.767051994359582E-005  4.827014126862319E-005  4.887730490143010E-005  4.949210571256956E-005 
 5.011463976591908E-005  5.074500433369105E-005  5.138329791163168E-005  5.202962023441108E-005 
 5.268407229120723E-005  5.334675634148547E-005  5.401777593097689E-005  5.469723590785753E-005 
 5.538524243913113E-005  5.608190302721804E-005  5.678732652675247E-005  5.750162316159141E-005 
 5.822490454203732E-005  5.895728368227735E-005  5.969887501804233E-005  6.044979442448718E-005 
 6.121015923429691E-005  6.198008825602003E-005  6.275970179263258E-005  6.354912166033588E-005 
 6.434847120759031E-005  6.515787533438890E-005  6.597746051177323E-005  6.680735480159464E-005 
 6.764768787652447E-005  6.849859104031530E-005  6.936019724831764E-005  7.023264112825446E-005 
 7.111605900125694E-005  7.201058890316515E-005  7.291637060609616E-005  7.383354564028390E-005 
 7.476225731619345E-005  7.570265074691356E-005  7.665487287083120E-005  7.761907247459046E-005 
 7.859540021634109E-005  7.958400864927912E-005  8.058505224548345E-005  8.159868742005277E-005 
 8.262507255554529E-005  8.366436802672662E-005  8.471673622562860E-005  8.578234158692334E-005 
 8.686135061361661E-005  8.795393190306405E-005  8.906025617331501E-005  9.018049628978755E-005 
 9.131482729227894E-005  9.246342642231629E-005  9.362647315085042E-005  9.480414920629892E-005 
 9.599663860294144E-005  9.720412766967225E-005  9.842680507911489E-005  9.966486187710201E-005 
 1.009184915125272E-004  1.021878898675714E-004  1.034732552883103E-004  1.047747886157060E-004 
 1.060926932169889E-004  1.074271750174342E-004  1.087784425325383E-004  1.101467069005994E-004 
 1.115321819157091E-004  1.129350840611571E-004  1.143556325432578E-004  1.157940493256018E-004 
 1.172505591637376E-004  1.187253896402910E-004  1.202187712005243E-004  1.217309371883448E-004 
 1.232621238827644E-004  1.248125705348193E-004  1.263825194049536E-004  1.279722158008721E-004 
 1.295819081158710E-004  1.312118478676494E-004  1.328622897376097E-004  1.345334916106519E-004 
 1.362257146154689E-004  1.379392231653479E-004  1.396742849994860E-004  1.414311712248247E-004 
 1.432101563584113E-004  1.450115183702923E-004  1.468355387269469E-004  1.486825024352667E-004 
 1.505526980870889E-004  1.524464179042891E-004  1.543639577844415E-004  1.563056173470537E-004 
 1.582716999803826E-004  1.602625128888397E-004  1.622783671409921E-004  1.643195777181684E-004 
 1.663864635636739E-004  1.684793476326271E-004  1.705985569424219E-004  1.727444226238242E-004 
 1.749172799727128E-004  1.771174685024692E-004  1.793453319970274E-004  1.816012185645910E-004 
 1.838854806920257E-004  1.861984752999367E-004  1.885405637984369E-004  1.909121121436195E-004 
 1.933134908947382E-004  1.957450752721084E-004  1.982072452157365E-004  2.007003854446853E-004 
 2.032248855171879E-004  2.057811398915169E-004  2.083695479876187E-004  2.109905142495249E-004 
 2.136444482085461E-004  2.163317645472629E-004  2.190528831643206E-004  2.218082292400391E-004 
 2.245982333028489E-004  2.274233312965609E-004  2.302839646484844E-004  2.331805803384006E-004 
 2.361136309684039E-004  2.390835748336233E-004  2.420908759938297E-004  2.451360043459479E-004 
 2.482194356974781E-004  2.513416518408423E-004  2.545031406286654E-004  2.577043960500023E-004 
 2.609459183075258E-004  2.642282138956834E-004  2.675517956798385E-004  2.709171829764071E-004 
 2.743249016340010E-004  2.777754841155937E-004  2.812694695817179E-004  2.848074039747113E-004 
 2.883898401040211E-004  2.920173377325809E-004  2.956904636642753E-004  2.994097918325042E-004 
 3.031759033898605E-004  3.069893867989380E-004  3.108508379242775E-004  3.147608601254737E-004 
 3.187200643514504E-004  3.227290692359228E-004  3.267885011940609E-004  3.308989945203670E-004 
 3.350611914877862E-004  3.392757424480625E-004  3.435433059333580E-004  3.478645487591501E-004 
 3.522401461284218E-004  3.566707817371643E-004  3.611571478812054E-004  3.656999455643826E-004 
 3.702998846080769E-004  3.749576837621222E-004  3.796740708171126E-004  3.844497827181211E-004 
 3.892855656798481E-004  3.941821753032206E-004  3.991403766934541E-004  4.041609445796033E-004 
 4.092446634356149E-004  4.143923276029027E-004  4.196047414144666E-004  4.248827193205689E-004 
 4.302270860159957E-004  4.356386765689164E-004  4.411183365513643E-004  4.466669221713609E-004 
 4.522853004066978E-004  4.579743491404048E-004  4.637349572979210E-004  4.695680249859908E-004 
 4.754744636333085E-004  4.814551961329293E-004  4.875111569864740E-004  4.936432924501471E-004 
 4.998525606825902E-004  5.061399318945982E-004  5.125063885007144E-004  5.189529252727363E-004 
 5.254805494951501E-004  5.320902811225203E-004  5.387831529388625E-004  5.455602107190142E-004 
 5.524225133920418E-004  5.593711332066991E-004  5.664071558989689E-004  5.735316808617128E-004 
 5.807458213164505E-004  5.880507044873054E-004  5.954474717771351E-004  6.029372789458766E-004 
 6.105212962911392E-004  6.182007088310628E-004  6.259767164894804E-004  6.338505342834086E-004 
 6.418233925128976E-004  6.498965369532665E-004  6.580712290497594E-004  6.663487461146477E-004 
 6.747303815268131E-004  6.832174449338419E-004  6.918112624566580E-004  7.005131768967344E-004 
 7.093245479459059E-004  7.182467523988257E-004  7.272811843680924E-004  7.364292555020814E-004 
 7.456923952055201E-004  7.550720508628324E-004  7.645696880642977E-004  7.741867908350526E-004 
 7.839248618669702E-004  7.937854227534626E-004  8.037700142272292E-004  8.138801964010012E-004 
 8.241175490113133E-004  8.344836716653383E-004  8.449801840908315E-004  8.556087263892145E-004 
 8.663709592918449E-004  8.772685644195104E-004  8.883032445451828E-004  8.994767238600828E-004 
 9.107907482430856E-004  9.222470855335192E-004  9.338475258073941E-004  9.455938816571033E-004 
 9.574879884746478E-004  9.695317047384159E-004  9.817269123035763E-004  9.940755166961237E-004 
 1.006579447410617E-003  1.019240658211670E-003  1.032061127439230E-003  1.045042858317696E-003 
 1.058187879268932E-003  1.071498244229202E-003  1.084976032970114E-003  1.098623351423579E-003 
 1.112442332010869E-003  1.126435133975819E-003  1.140603943722201E-003  1.154950975155368E-003 
 1.169478470028168E-003  1.184188698291232E-003  1.199083958447656E-003  1.214166577912141E-003 
 1.229438913374667E-003  1.244903351168721E-003  1.260562307644169E-003  1.276418229544822E-003 
 1.292473594390734E-003  1.308730910865327E-003  1.325192719207377E-003  1.341861591607928E-003 
 1.358740132612207E-003  1.375830979526585E-003  1.393136802830664E-003  1.410660306594544E-003 
 1.428404228901340E-003  1.446371342275012E-003  1.464564454113581E-003  1.482986407127784E-003 
 1.501640079785261E-003  1.520528386760314E-003  1.539654279389337E-003  1.559020746131966E-003 
 1.578630813038031E-003  1.598487544220383E-003  1.618594042333666E-003  1.638953449059119E-003 
 1.659568945595465E-003  1.680443753155979E-003  1.701581133471814E-003  1.722984389301646E-003 
 1.744656864947747E-003  1.766601946778528E-003  1.788823063757671E-003  1.811323687979916E-003 
 1.834107335213574E-003  1.857177565449881E-003  1.880537983459246E-003  1.904192239354510E-003 
 1.928144029161283E-003  1.952397095395451E-003  1.976955227647958E-003  2.001822263176932E-003 
 2.027002087507266E-003  2.052498635037741E-003  2.078315889655781E-003  2.104457885359947E-003 
 2.130928706890253E-003  2.157732490366418E-003  2.184873423934146E-003  2.212355748419520E-003 
 2.240183757991660E-003  2.268361800833674E-003  2.296894279822086E-003  2.325785653214789E-003 
 2.355040435347653E-003  2.384663197339909E-003  2.414658567808383E-003  2.445031233590738E-003 
 2.475785940477797E-003  2.506927493955080E-003  2.538460759953678E-003  2.570390665610558E-003 
 2.602722200038439E-003  2.635460415105356E-003  2.668610426224018E-003  2.702177413151109E-003 
 2.736166620796628E-003  2.770583360043419E-003  2.805433008577013E-003  2.840721011725895E-003 
 2.876452883312351E-003  2.912634206514014E-003  2.949270634736244E-003  2.986367892495490E-003 
 3.023931776313750E-003  3.061968155624298E-003  3.100482973688784E-003  3.139482248525889E-003 
 3.178972073851655E-003  3.218958620031627E-003  3.259448135045003E-003  3.300446945460878E-003 
 3.341961457426791E-003  3.383998157669703E-003  3.426563614509547E-003  3.469664478885556E-003 
 3.513307485395480E-003  3.557499453347874E-003  3.602247287827644E-003  3.647557980774964E-003 
 3.693438612077797E-003  3.739896350678126E-003  3.786938455692126E-003  3.834572277544414E-003 
 3.882805259116565E-003  3.931644936910084E-003  3.981098942223990E-003  4.031175002347223E-003 
 4.081880941766065E-003  4.133224683386708E-003  4.185214249773242E-003  4.237857764401188E-003 
 4.291163452926808E-003  4.345139644472390E-003  4.399794772927674E-003  4.455137378267682E-003 
 4.511176107887091E-003  4.567919717951415E-003  4.625377074765177E-003  4.683557156157272E-003 
 4.742469052883788E-003  4.802121970048443E-003  4.862525228540914E-003  4.923688266493228E-003 
 4.985620640754503E-003  5.048332028384219E-003  5.111832228164284E-003  5.176131162130101E-003 
 5.241238877120922E-003  5.307165546349676E-003  5.373921470992559E-003  5.441517081798615E-003 
 5.509962940719552E-003  5.579269742560085E-003  5.649448316649004E-003  5.720509628531292E-003 
 5.792464781681506E-003  5.865325019238718E-003  5.939101725763283E-003  6.013806429015695E-003 
 6.089450801757823E-003  6.166046663576811E-003  6.243605982731904E-003  6.322140878024510E-003 
 6.401663620691805E-003  6.482186636324119E-003  6.563722506806469E-003  6.646283972284507E-003 
 6.729883933155182E-003  6.814535452082469E-003  6.900251756038422E-003  6.987046238369929E-003 
 7.074932460891439E-003  7.163924156004022E-003  7.254035228841099E-003  7.345279759441130E-003 
 7.437672004947662E-003  7.531226401837032E-003  7.625957568174083E-003  7.721880305896296E-003 
 7.819009603126590E-003  7.917360636515273E-003  8.016948773611409E-003  8.117789575264026E-003 
 8.219898798053552E-003  8.323292396753787E-003  8.427986526824884E-003  8.533997546937672E-003 
 8.641342021529720E-003  8.750036723393579E-003  8.860098636297555E-003  8.971544957639464E-003 
 9.084393101133757E-003  9.198660699532440E-003  9.314365607380247E-003  9.431525903804432E-003 
 9.550159895339671E-003  9.670286118788514E-003  9.791923344117765E-003  9.915090577391355E-003 
 1.003980706374007E-002  1.016609229036864E-002  1.029396598960067E-002  1.042344814196180E-002 
 1.055455897930178E-002  1.068731898795569E-002  1.082174891194499E-002  1.095786975621881E-002 
 1.109570278993599E-002  1.123526954978848E-002  1.137659184336646E-002  1.151969175256582E-002 
 1.166459163703852E-002  1.181131413768629E-002  1.195988218019839E-002  1.211031897863371E-002 
 1.226264803904808E-002  1.241689316316710E-002  1.257307845210523E-002  1.273122831013163E-002 
 1.289136744848338E-002  1.305352088922664E-002  1.321771396916643E-002  1.338397234380556E-002 
 1.355232199135331E-002  1.372278921678462E-002  1.389540065595029E-002  1.407018327973885E-002 
 1.424716439829089E-002  1.442637166526625E-002  1.460783308216498E-002  1.479157700270267E-002 
 1.497763213724073E-002  1.516602755727246E-002  1.535679269996553E-002  1.554995737276162E-002 
 1.574555175803383E-002  1.594360641780281E-002  1.614415229851209E-002  1.634722073586354E-002 
 1.655284345971366E-002  1.676105259903137E-002  1.697188068691831E-002  1.718536066569214E-002 
 1.740152589203387E-002  1.762041014219991E-002  1.784204761729968E-002  1.806647294863958E-002 
 1.829372120313422E-002  1.852382788878572E-002  1.875682896023186E-002  1.899276082436411E-002 
 1.923166034601623E-002  1.947356485372453E-002  1.971851214556051E-002  1.996654049503686E-002 
 2.021768865708779E-002  2.047199587412460E-002  2.072950188216734E-002  2.099024691705368E-002 
 2.125427172072579E-002  2.152161754759641E-002  2.179232617099492E-002  2.206643988969447E-002 
 2.234400153452132E-002  2.262505447504715E-002  2.290964262636575E-002  2.319781045595474E-002 
 2.348960299062379E-002  2.378506582355009E-002  2.408424512140241E-002  2.438718763155474E-002 
 2.469394068939061E-002  2.500455222569940E-002  2.531907077416563E-002  2.563754547895236E-002 
 2.596002610238017E-002  2.628656303270256E-002  2.661720729197925E-002  2.695201054404843E-002 
 2.729102510259940E-002  2.763430393934669E-002  2.798190069230692E-002  2.833386967417995E-002 
 2.869026588083527E-002  2.905114499990527E-002  2.941656341948653E-002  2.978657823695053E-002 
 3.016124726786533E-002  3.054062905502927E-002  3.092478287761844E-002  3.131376876044920E-002 
 3.170764748335714E-002  3.210648059069407E-002  3.251033040094443E-002  3.291926001646273E-002 
 3.333333333333335E-002  3.375261505135450E-002  3.417717068414764E-002  3.460706656939418E-002 
 3.504236987920082E-002  3.548314863059533E-002  3.592947169615440E-002  3.638140881476507E-002 
 3.683903060252160E-002  3.730240856375936E-002  3.777161510222756E-002  3.824672353240242E-002 
 3.872780809094278E-002  3.921494394828970E-002  3.970820722041195E-002  4.020767498069937E-002 
 4.071342527200568E-002  4.122553711884284E-002  4.174409053972883E-002  4.226916655969067E-002 
 4.280084722292474E-002  4.333921560561638E-002  4.388435582892074E-002  4.443635307210678E-002 
 4.499529358586678E-002  4.556126470579323E-002  4.613435486602506E-002  4.671465361306579E-002 
 4.730225161977526E-002  4.789724069953750E-002  4.849971382060673E-002  4.910976512063387E-002 
 4.972748992137570E-002  5.035298474358910E-002  5.098634732211264E-002  5.162767662113779E-002 
 5.227707284967231E-002  5.293463747719813E-002  5.360047324952612E-002  5.427468420485036E-002 
 5.495737569000429E-002  5.564865437692145E-002  5.634862827930307E-002  5.705740676949551E-002 
 5.777510059557987E-002  5.850182189867665E-002  5.923768423046797E-002  5.998280257094032E-002 
 6.073729334635033E-002  6.150127444741669E-002  6.227486524774077E-002  6.305818662245902E-002 
 6.385136096712990E-002  6.465451221685850E-002  6.546776586566160E-002  6.629124898607643E-002 
 6.712509024901592E-002  6.796941994387387E-002  6.882436999888290E-002  6.969007400172855E-002 
 7.056666722042253E-002  7.145428662443867E-002  7.235307090611479E-002  7.326316050232343E-002 
 7.418469761641562E-002  7.511782624044032E-002  7.606269217764348E-002  7.701944306525017E-002 
 7.798822839753307E-002  7.896919954917135E-002  7.996250979890331E-002  8.096831435347630E-002 
 8.198677037189836E-002  8.301803698999440E-002  8.406227534527164E-002  8.511964860209760E-002 
 8.619032197719491E-002  8.727446276545674E-002  8.837224036608693E-002  8.948382630906905E-002 
 9.060939428196821E-002  9.174912015707018E-002  9.290318201886172E-002  9.407176019185673E-002 
 9.525503726877217E-002  9.645319813905874E-002  9.766643001779009E-002  9.889492247491562E-002 
 1.001388674648812E-001  1.013984593566222E-001  1.026738949639344E-001  1.039653735762265E-001 
 1.052730969896590E-001  1.065972695386759E-001  1.079380981279321E-001  1.092957922646225E-001 
 1.106705640912183E-001  1.120626284186143E-001  1.134722027596940E-001  1.148995073633159E-001 
 1.163447652487281E-001  1.178082022404157E-001  1.192900470033860E-001  1.207905310788981E-001 
 1.223098889206415E-001  1.238483579313702E-001  1.254061784999971E-001  1.269835940391554E-001 
 1.285808510232326E-001  1.301981990268818E-001  1.318358907640193E-001  1.334941821273109E-001 
 1.351733322281559E-001  1.368736034371738E-001  1.385952614252003E-001  1.403385752047988E-001 
 1.421038171722940E-001  1.438912631503349E-001  1.457011924309920E-001  1.475338878193979E-001 
 1.493896356779356E-001  1.512687259709835E-001  1.531714523102230E-001  1.550981120005158E-001 
 1.570490060863581E-001  1.590244393989202E-001  1.610247206036760E-001  1.630501622486336E-001 
 1.651010808131706E-001  1.671777967574854E-001  1.692806345726695E-001  1.714099228314096E-001 
 1.735659942393284E-001  1.757491856869698E-001  1.779598383024393E-001  1.801982975047056E-001 
 1.824649130575734E-001  1.847600391243342E-001  1.870840343231053E-001  1.894372617828649E-001 
 1.918200892001911E-001  1.942328888967159E-001  1.966760378773006E-001  1.991499178889442E-001 
 2.016549154804316E-001  2.041914220627330E-001  2.067598339701623E-001  2.093605525223056E-001 
 2.119939840867278E-001  2.146605401424687E-001  2.173606373443372E-001  2.200946975880143E-001 
 2.228631480759758E-001  2.256664213842426E-001  2.285049555299727E-001  2.313791940399013E-001 
 2.342895860196432E-001  2.372365862238666E-001  2.402206551273491E-001  2.432422589969278E-001 
 2.463018699643551E-001  2.493999661000695E-001  2.525370314878950E-001  2.557135563006811E-001 
 2.589300368768926E-001  2.621869757981632E-001  2.654848819678259E-001  2.688242706904292E-001 
 2.722056637522552E-001  2.756295895028492E-001  2.790965829375756E-001  2.826071857812126E-001 
 2.861619465725965E-001  2.897614207503336E-001  2.934061707395871E-001  2.970967660399580E-001 
 3.008337833144709E-001  3.046178064796776E-001  3.084494267968966E-001  3.123292429645979E-001 
 3.162578612119510E-001  3.202358953935503E-001  3.242639670853296E-001  3.283427056816863E-001 
 3.324727484938242E-001  3.366547408493352E-001  3.408893361930335E-001  3.451771961890565E-001 
 3.495189908242526E-001  3.539153985128670E-001  3.583671062025454E-001  3.628748094816715E-001 
 3.674392126880535E-001  3.720610290189791E-001  3.767409806426530E-001  3.814797988110376E-001 
 3.862782239741132E-001  3.911370058955738E-001  3.960569037699802E-001  4.010386863413846E-001 
 4.060831320234493E-001  4.111910290210753E-001  4.163631754535604E-001  4.216003794793078E-001 
 4.269034594221014E-001  4.322732438989714E-001  4.377105719496674E-001  4.432162931677596E-001 
 4.487912678333899E-001  4.544363670476921E-001  4.601524728689034E-001  4.659404784501880E-001 
 4.718012881791936E-001  4.777358178193645E-001  4.837449946530308E-001  4.898297576262983E-001 
 4.959910574957614E-001  5.022298569770597E-001  5.085471308953056E-001  5.149438663374009E-001 
 5.214210628062727E-001  5.279797323770475E-001  5.346208998551892E-001  5.413456029366281E-001 
 5.481548923699021E-001  5.550498321203384E-001  5.620314995363014E-001  5.691009855175287E-001 
 5.762593946855883E-001  5.835078455564763E-001  5.908474707153883E-001  5.982794169936884E-001 
 6.058048456481022E-001  6.134249325421685E-001  6.211408683299672E-001  6.289538586421630E-001 
 6.368651242743886E-001  6.448759013779939E-001  6.529874416532001E-001  6.612010125446778E-001 
 6.695178974395891E-001  6.779393958681207E-001  6.864668237065346E-001  6.951015133827806E-001 
 7.038448140846876E-001  7.126980919707785E-001  7.216627303837356E-001  7.307401300665490E-001 
 7.399317093813882E-001  7.492389045312209E-001  7.586631697842245E-001  7.682059777010196E-001 
 7.778688193647574E-001  7.876532046141076E-001  7.975606622791717E-001  8.075927404203663E-001 
 8.177510065703121E-001  8.280370479787617E-001  8.384524718606126E-001  8.489989056470365E-001 
 8.596779972397691E-001  8.704914152685993E-001  8.814408493520934E-001  8.925280103616046E-001 
 9.037546306885970E-001  9.151224645153371E-001  9.266332880889894E-001  9.382888999991551E-001 
 9.500911214589097E-001  9.620417965893678E-001  9.741427927078318E-001  9.863960006195657E-001 
 9.988033349132341E-001  1.011366734260065E+000  1.024088161716765E+000  1.036969605032256E+000 
 1.050013076958265E+000  1.063220615563817E+000  1.076594284553690E+000  1.090136173590872E+000 
 1.103848398623078E+000  1.117733102213365E+000  1.131792453874919E+000  1.146028650410040E+000 
 1.160443916253402E+000  1.175040503819619E+000  1.189820693855197E+000  1.204786795794898E+000 
 1.219941148122600E+000  1.235286118736686E+000  1.250824105320034E+000  1.266557535714659E+000 
 1.282488868301072E+000  1.298620592382399E+000  1.314955228573352E+000  1.331495329194065E+000 
 1.348243478668914E+000  1.365202293930327E+000  1.382374424827692E+000  1.399762554541400E+000 
 1.417369400002094E+000  1.435197712315198E+000  1.453250277190784E+000  1.471529915378842E+000 
 1.490039483110029E+000  1.508781872541960E+000  1.527760012211117E+000  1.546976867490433E+000 
 1.566435441052644E+000  1.586138773339457E+000  1.606089943036628E+000  1.626292067555015E+000 
 1.646748303517674E+000  1.667461847253092E+000  1.688435935294622E+000  1.709673844886191E+000 
 1.731178894494382E+000  1.752954444326949E+000  1.775003896857855E+000  1.797330697358919E+000 
 1.819938334438143E+000  1.842830340584815E+000  1.866010292721472E+000  1.889481812762794E+000 
 1.913248568181541E+000  1.937314272581601E+000  1.961682686278247E+000  1.986357616885700E+000 
 2.011342919912066E+000  2.036642499361779E+000  2.062260308345598E+000  2.088200349698295E+000 
 2.114466676604112E+000  2.141063393230063E+000  2.167994655367234E+000  2.195264671080125E+000 
 2.222877701364174E+000  2.250838060811538E+000  2.279150118285272E+000  2.307818297601955E+000 
 2.336847078222930E+000  2.366240995954231E+000  2.396004643655302E+000  2.426142671956656E+000 
 2.456659789986528E+000  2.487560766106699E+000  2.518850428657556E+000  2.550533666712530E+000 
 2.582615430842030E+000  2.615100733886972E+000  2.647994651742047E+000  2.681302324148844E+000 
 2.715028955498938E+000  2.749179815647101E+000  2.783760240734709E+000  2.818775634023536E+000 
 2.854231466740022E+000  2.890133278930163E+000  2.926486680325162E+000  2.963297351217944E+000 
 3.000571043350730E+000  3.038313580813748E+000  3.076530860955263E+000  3.115228855303056E+000 
 3.154413610497472E+000  3.194091249236232E+000  3.234267971231115E+000  3.274950054176669E+000 
 3.316143854731129E+000  3.357855809509637E+000  3.400092436089992E+000  3.442860334031029E+000 
 3.486166185903807E+000  3.530016758335798E+000  3.574418903068152E+000  3.619379558026323E+000 
 3.664905748404121E+000  3.711004587761412E+000  3.757683279135641E+000  3.804949116167301E+000 
 3.852809484239592E+000  3.901271861632397E+000  3.950343820690778E+000  4.000033029008182E+000 
 4.050347250624499E+000  4.101294347239222E+000  4.152882279439848E+000  4.205119107945738E+000 
 4.258012994867631E+000  4.311572204982966E+000  4.365805107027290E+000  4.420720175001889E+000 
 4.476325989497851E+000  4.532631239036832E+000  4.589644721428624E+000  4.647375345145844E+000 
 4.705832130715900E+000  4.765024212130467E+000  4.824960838272700E+000  4.885651374362372E+000 
 4.947105303419224E+000  5.009332227744699E+000  5.072341870422321E+000  5.136144076836959E+000 
 5.200748816213170E+000  5.266166183172920E+000  5.332406399312889E+000  5.399479814801611E+000 
 5.467396909996728E+000  5.536168297082537E+000  5.605804721728187E+000  5.676317064766705E+000 
 5.747716343895145E+000  5.820013715396144E+000  5.893220475881082E+000  5.967348064055228E+000 
 6.042408062505046E+000  6.118412199508000E+000  6.195372350865139E+000  6.273300541756683E+000 
 6.352208948621006E+000  6.432109901057220E+000  6.513015883751698E+000  6.594939538428852E+000 
 6.677893665826394E+000  6.761891227695502E+000  6.846945348826112E+000  6.933069319097688E+000 
 7.020276595555818E+000  7.108580804514869E+000  7.197995743687144E+000  7.288535384338806E+000 
 7.380213873472906E+000  7.473045536039903E+000  7.567044877175936E+000  7.662226584469301E+000 
 7.758605530255410E+000  7.856196773940621E+000  7.955015564355322E+000  8.055077342136560E+000 
 8.156397742140687E+000  8.258992595886344E+000  8.362877934028154E+000  8.468069988861568E+000 
 8.574585196859166E+000  8.682440201238901E+000  8.791651854564641E+000  8.902237221379405E+000 
 9.014213580871759E+000  9.127598429575686E+000  9.242409484104474E+000  9.358664683918985E+000 
 9.476382194130698E+000  9.595580408340103E+000  9.716277951510673E+000  9.838493682879085E+000 
 9.962246698902019E+000  1.008755633624000E+001  1.021444217477881E+001  1.034292404068888E+001 
 1.047302200952315E+001  1.060475640935394E+001  1.073814782394922E+001  1.087321709598893E+001 
 1.100998533032163E+001  1.114847389726218E+001  1.128870443593092E+001  1.143069885763481E+001 
 1.157447934929116E+001  1.172006837689429E+001  1.186748868902598E+001  1.201676332040992E+001 
 1.216791559551096E+001  1.232096913217963E+001  1.247594784534241E+001  1.263287595073853E+001 
 1.279177796870374E+001  1.295267872800163E+001  1.311560336970320E+001  1.328057735111520E+001 
 1.344762644975785E+001  1.361677676739268E+001  1.378805473410096E+001  1.396148711241347E+001 
 1.413710100149215E+001  1.431492384136448E+001  1.449498341721096E+001  1.467730786370663E+001 
 1.486192566941724E+001  1.504886568125052E+001  1.523815710896364E+001  1.542982952972732E+001 
 1.562391289274723E+001  1.582043752394375E+001  1.601943413069031E+001  1.622093380661159E+001 
 1.642496803644189E+001  1.663156870094473E+001  1.684076808189430E+001  1.705259886711947E+001 
 1.726709415561141E+001  1.748428746269535E+001  1.770421272526737E+001  1.792690430709723E+001 
 1.815239700419765E+001  1.838072605026131E+001  1.861192712216620E+001  1.884603634555017E+001 
 1.908309030045571E+001  1.932312602704555E+001  1.956618103139031E+001  1.981229329132894E+001 
 2.006150126240274E+001  2.031384388386425E+001  2.056936058476145E+001  2.082809129009872E+001 
 2.109007642707514E+001  2.135535693140136E+001  2.162397425369595E+001  2.189597036596199E+001 
 2.217138776814541E+001  2.245026949477565E+001  2.273265912168985E+001  2.301860077284179E+001 
 2.330813912719619E+001  2.360131942571000E+001  2.389818747840133E+001  2.419878967150738E+001 
 2.450317297473244E+001  2.481138494858690E+001  2.512347375181873E+001  2.543948814893839E+001 
 2.575947751783833E+001  2.608349185750853E+001  2.641158179584874E+001  2.674379859757932E+001 
 2.708019417225147E+001  2.742082108235808E+001  2.776573255154693E+001  2.811498247293678E+001 
 2.846862541753841E+001  2.882671664278139E+001  2.918931210114820E+001  2.955646844891695E+001 
 2.992824305501394E+001  3.030469400997777E+001  3.068588013503603E+001  3.107186099129628E+001 
 3.146269688905263E+001  3.185844889720925E+001  3.225917885282259E+001  3.266494937076347E+001 
 3.307582385350087E+001  3.349186650100870E+001  3.391314232079704E+001  3.433971713806982E+001 
 3.477165760601013E+001  3.520903121619484E+001  3.565190630914044E+001  3.610035208498120E+001 
 3.655443861428198E+001  3.701423684898683E+001  3.747981863350535E+001  3.795125671593867E+001 
 3.842862475944629E+001  3.891199735375621E+001  3.940145002681973E+001  3.989705925661278E+001 
 4.039890248308591E+001  4.090705812026422E+001  4.142160556849989E+001  4.194262522687855E+001 
 4.247019850578180E+001  4.300440783960791E+001  4.354533669965210E+001  4.409306960714928E+001 
 4.464769214648064E+001  4.520929097854628E+001  4.577795385430637E+001  4.635376962849217E+001 
 4.693682827348989E+001  4.752722089339908E+001  4.812503973826768E+001  4.873037821850660E+001 
 4.934333091948488E+001  4.996399361630911E+001  5.059246328878843E+001  5.122883813658775E+001 